17
Lattice="40.0 0.0 0.0 0.0 40.0 0.0 0.0 0.0 40.0" Properties=species:S:1:pos:R:3:AIMS_atom_multipoles:R:9:aims_charges:R:1:MACE_forces:R:3:MACE_charges:R:1 config_type=carved_H11O6- AIMS_dipole="-7.244330775913459 -7.286535646358292 -6.712857083030709" calculation_time=9.45 number_of_scf_cylces=19.0 total_charge=-1.0 MACE_energy=-369.272873849186 MACE_dipole="-6.8567625031240516 -6.747835380901384 -6.074314802385805" pbc="F F F"
O        4.60209100       8.37513600       6.38635000      -0.28838281       0.01045736      -0.06450341       0.02196202      -0.00636064      -0.03616360      -0.02910039       0.03313210       0.04523677      -0.28838281       0.00688145      -0.02264627       0.03453834       0.09334461
O        7.37853300       8.24298600       8.20292300      -0.32705374      -0.05712298      -0.07535609       0.03604312       0.05047922       0.03042734      -0.05883510       0.01603301       0.05828655      -0.32705374      -0.02963196       0.02892242       0.05012763      -0.11725943
O        8.49254000       3.26564500       6.81422300      -0.26331598       0.00289618      -0.01890260      -0.06176022       0.00775604       0.07831022       0.02385300      -0.03516665       0.00760201      -0.26331598       0.04397347       0.02130660       0.00516047       0.01920504
O        6.34969200       6.12771200       6.83285000      -0.29986664       0.06246383      -0.04904971       0.01558983      -0.04461505       0.01450819      -0.00626086       0.00968903       0.05841133      -0.29986664       0.01278086      -0.03409921       0.03490978      -0.10547211
O        6.67380800       9.04184000       4.88515200      -0.29386011      -0.01944051       0.05963484       0.05033415       0.02547009       0.03477373      -0.06730784      -0.02328669      -0.02138779      -0.29386011      -0.03638545      -0.01479084      -0.01102925       0.06547738
O        7.97062900       6.75260000       5.01939300      -0.39882875      -0.01458720      -0.02773249      -0.11285152      -0.00313447       0.04705766       0.07867873      -0.00461638      -0.08089216      -0.39882875       0.00806493       0.02517723       0.05605555       0.05226968
H        3.92746000       8.64609700       5.79924000       0.08868605       0.03877304      -0.08784236      -0.11381530       0.00540992      -0.01034677      -0.00533951      -0.00636872       0.01493117       0.08868605      -0.09585516       0.05799517      -0.03236868      -0.34935427
H        5.46736800       8.60686200       5.96111300       0.09425520       0.00166462      -0.00946170       0.06510712      -0.02637455       0.02105690       0.01170710       0.05823280      -0.03587500       0.09425520       0.02982510       0.00460437      -0.00337672       0.13624510
H        8.35469100       8.25959800       8.00015700       0.08560588       0.00827977      -0.02979516       0.14058951       0.01145817       0.01621911      -0.01336200       0.00847566      -0.00157367       0.08560588       0.06060224       0.00303073       0.01173888      -0.15524559
H        7.02322800       7.48897000       7.63065100       0.08936981      -0.03758759      -0.04594687      -0.02695275      -0.05233731      -0.03486588      -0.00503724      -0.03748996       0.04413404       0.08936981      -0.00944910      -0.00969687      -0.01832301       0.08435090
H        7.66447900       3.43624500       7.29163600       0.12563892       0.03253558       0.07916823      -0.10798390       0.04654427       0.01614284       0.01892198       0.01305685      -0.00013418       0.12563892      -0.04729926       0.02240979       0.06202547      -0.09833304
H        8.13462400       2.68239100       6.10994400       0.11274975      -0.08088422      -0.11835404      -0.04370609       0.00114061       0.00717895      -0.00554960      -0.01822391       0.01821409       0.11274975       0.01652265      -0.09155563      -0.06120398      -0.20823733
H        5.52950400       6.56109500       6.43922300       0.07908575       0.03721280      -0.04455323      -0.07643105       0.04174801       0.01354005       0.04256105      -0.01134000       0.01608379       0.07908575      -0.04147171      -0.00727522      -0.00285428      -0.12467083
H        7.00843600       6.27092900       6.06984100       0.04312839      -0.00371577      -0.01612024       0.02869966      -0.02025183       0.01878403      -0.01375673       0.07825055      -0.02004438       0.04312839       0.02909260      -0.02621922      -0.02617334       0.19372630
H        7.27338600       9.73760900       5.13936400       0.09312497       0.10761940       0.04496540       0.08748444      -0.00758276       0.00488492      -0.02533262      -0.00440467      -0.00304309       0.09312497       0.03444372       0.08406279      -0.02082674      -0.27105749
H        7.19774100       8.11531200       4.91002000       0.06491086      -0.03031001       0.01000538      -0.00550426       0.07291337       0.01518490       0.03614907       0.01997035       0.03582387       0.06491086       0.01971735      -0.02493356      -0.01071205       0.03906053
H        7.74153400       6.31336800       4.21707700      -0.00524757      -0.06443873      -0.10805212      -0.05056693       0.00116349       0.01798712       0.01981329       0.00909268      -0.01984200      -0.00524757      -0.00181175      -0.01629227      -0.06768808      -0.25404946
11
Lattice="40.0 0.0 0.0 0.0 40.0 0.0 0.0 0.0 40.0" Properties=species:S:1:pos:R:3:AIMS_atom_multipoles:R:9:aims_charges:R:1:MACE_forces:R:3:MACE_charges:R:1 config_type=carved_H7O4- AIMS_dipole="-5.0824735680136595 -3.9666139257341197 -5.8977183950942" calculation_time=9.12 number_of_scf_cylces=43.0 total_charge=-1.0 MACE_energy=-476.87610276197483 MACE_dipole="-5.815997363027412 -5.985373519730613 -6.645004129611161" pbc="F F F"
O        5.21368600       7.87836200       7.94485800      -0.23068856       0.01331846      -0.00183378       0.05964411       0.01736403      -0.02281270       0.06338691       0.01470992      -0.03657323      -0.23068856       0.00821495      -0.01106028      -0.00614623       0.21988314
O        7.13064800       5.83108000       7.39984800      -0.26407025      -0.02971488       0.05226213      -0.05129781      -0.07833625       0.00797172       0.00474783       0.03318545      -0.01933710      -0.26407025       0.01952230       0.01054545      -0.04144411      -0.02731290
O        5.50976300       4.62238700       3.83849800      -0.33821751       0.02771722       0.07883235      -0.08116531      -0.05354240      -0.09498259      -0.00136740       0.02217796      -0.02832417      -0.33821751       0.05984666      -0.06147648      -0.05470474      -0.21613543
O        4.94415000       3.89303000       6.69336700      -0.61371434       0.11765828      -0.07561167       0.15633051       0.12882469       0.05734297       0.01837168       0.08841524       0.06787193      -0.61371434      -0.03662837      -0.08610368       0.05239369      -0.45489256
H        5.66750900       8.05725000       8.80707200       0.09045663      -0.01016738       0.10011645       0.04585744       0.01100712      -0.03159644      -0.00300598      -0.01404389      -0.00737229       0.09045663      -0.02048683       0.00252678       0.13581197      -0.33359226
H        5.60818200       8.52697000       7.30325100       0.11235977       0.05610407      -0.10365479       0.04028986      -0.00032518       0.01174813       0.02111907       0.01891947       0.00414699       0.11235977      -0.01042197       0.08032958      -0.09565982      -0.28596936
H        7.54014400       5.23037000       8.05619500       0.10940839      -0.10819701       0.07319872       0.06069259      -0.03524228       0.01554920       0.01151418      -0.00907916       0.00753645       0.10940839       0.06991142      -0.05724642       0.04913892      -0.35728676
H        6.51456200       6.46847900       7.82408700       0.08978644       0.04647942       0.03093764      -0.06698895       0.02940004      -0.02401203       0.05807455       0.01468962      -0.00775526       0.08978644      -0.00680982       0.03690001       0.02432404       0.19792884
H        4.87985600       5.33292700       3.61292800       0.07290689       0.10548081      -0.03463572      -0.08021682      -0.00748709      -0.02973199       0.00848887      -0.00826300      -0.00119359       0.07290689      -0.05204621       0.04299265      -0.06796370      -0.18746820
H        5.24403100       4.17047200       4.67686400       0.05127474      -0.03231654       0.02841538       0.00734585      -0.02352852       0.03434052      -0.05310954       0.03217385       0.01555201       0.05127474      -0.01470576       0.02500501       0.01278443       0.15232529
H        5.76804700       4.41255300       6.85664100      -0.07950220       0.06507947      -0.01207118       0.09179758       0.02056731       0.01251803       0.00478180       0.01555537       0.03189410      -0.07950220      -0.01639637       0.01758739      -0.00853446       0.29252020
13
Lattice="40.0 0.0 0.0 0.0 40.0 0.0 0.0 0.0 40.0" Properties=species:S:1:pos:R:3:AIMS_atom_multipoles:R:9:aims_charges:R:1:MACE_forces:R:3:MACE_charges:R:1 config_type=carved_H9O4+ AIMS_dipole="7.33899002308109 5.91406655837134 6.42116170609381" calculation_time=5.085 number_of_scf_cylces=18.0 total_charge=1.0 MACE_energy=912.349033744018 MACE_dipole="6.1374965397040935 6.535295592459638 5.901445633696554" pbc="F F F"
O        8.85935600       6.67299400       5.53551900      -0.17143625       0.00129756      -0.00811359      -0.00057693      -0.01922488      -0.00864408       0.00038284       0.00022608      -0.02818088      -0.17143625      -0.03438689      -0.00912297      -0.00143998      -0.16455378
O        6.09245100       4.07314200       6.15497800      -0.19891208      -0.01843942       0.00607483       0.00153878      -0.01202603      -0.00563798       0.00216351      -0.03177669       0.00272917      -0.19891208       0.03402954      -0.00874802       0.03864542      -0.28542703
O        3.63762800       8.34424900       5.39651800      -0.27448075       0.05868136       0.01743901      -0.02694310      -0.02519289      -0.00392607       0.05568532       0.05081248      -0.01657630      -0.27448075       0.00987509       0.03597542       0.00223756      -0.21460721
O        6.78807400       6.41798000       6.74545300      -0.13152118       0.00092247       0.01090216      -0.00682286       0.00257429      -0.00527607       0.00232881       0.00198232       0.00249244      -0.13152118      -0.01381015       0.03485181       0.02072772      -0.05692817
H        8.88987400       7.16716100       4.69724100       0.21979111       0.09884248      -0.13895614       0.00722299      -0.00350840       0.02915328      -0.01489995      -0.00142324       0.00787966       0.21979111       0.02358404       0.07629225      -0.03833973       0.25829080
H        9.24538600       5.84015800       5.17724700       0.21293364      -0.14254857      -0.05180657       0.07256433       0.01561120      -0.01434456       0.01797121       0.00737279       0.01605985       0.21293364       0.05327951      -0.05404144       0.01021594       0.19850879
H        5.63985200       3.68757400       6.90002200       0.20012490      -0.06077250       0.12701875      -0.09501318      -0.02007424       0.01225285      -0.01460290       0.01460831      -0.00602566       0.20012490      -0.07998692      -0.01889403       0.03360843       0.29586772
H        6.71882100       3.39596400       5.86864600       0.19903711      -0.11389443      -0.06461088       0.10381912       0.02157733      -0.02048500       0.01194070       0.00553383      -0.00399783       0.19903711       0.02461222      -0.05041838      -0.06530474       0.27512914
H        3.17461400       9.02403600       4.92903400       0.14551844       0.10382200      -0.09441083      -0.08264851       0.00049144       0.02393443       0.01366278       0.00115141      -0.00912777       0.14551844      -0.06072607       0.00707066      -0.07430289       0.36421982
H        3.78285000       8.72630500       6.29560700       0.13061560       0.05054287       0.14410871       0.02181550      -0.01340243      -0.00952954      -0.00784691       0.00246661      -0.01455076       0.13061560       0.00077314      -0.00246058       0.05674855       0.16284968
H        6.57150000       5.50361700       6.54029900       0.18457358      -0.04729459      -0.02024188      -0.02081829      -0.05960573      -0.05046219       0.06820853      -0.02067774       0.09929347       0.18457358      -0.00430501      -0.03132926      -0.00603586      -0.04436946
H        7.68958000       6.59384900       6.27165200       0.18485836       0.03048669      -0.00906497       0.03527040      -0.02560715       0.00947649       0.00896848       0.11873061      -0.08993497       0.18485836       0.02944037       0.00838097      -0.01366697      -0.03735394
H        6.68042400       6.83985400       7.72275900       0.29889751       0.07618333       0.14633807      -0.02428012       0.01524720      -0.03230349      -0.03730938       0.00544024       0.00430635       0.29889751       0.01762114       0.01244357       0.03690656       0.24837364
19
Lattice="40.0 0.0 0.0 0.0 40.0 0.0 0.0 0.0 40.0" Properties=species:S:1:pos:R:3:AIMS_atom_multipoles:R:9:aims_charges:R:1:MACE_forces:R:3:MACE_charges:R:1 config_type=carved_H13O6+ AIMS_dipole="5.500157301985241 5.90539901055866 6.307654306298251" calculation_time=10.093 number_of_scf_cylces=17.0 total_charge=1.0 MACE_energy=1020.0064055604835 MACE_dipole="6.175368468827243 6.105234947659836 6.319144924001504" pbc="F F F"
O        4.54507000       3.79941900       4.18657000      -0.25969547      -0.02911633       0.04143962      -0.01652105      -0.06106064      -0.00118635      -0.00704649      -0.02570865      -0.01075882      -0.25969547       0.02020996       0.00158324      -0.02785738      -0.03918761
O        6.63157600       4.05837200       7.71933800      -0.24222592      -0.00223878       0.02561317      -0.02863775       0.03447870       0.03455057       0.01540253       0.00882613       0.01625851      -0.24222592      -0.02366427       0.06583313      -0.01539667      -0.26076297
O        8.07613400       6.07661900       6.08333300      -0.22031499      -0.02464113      -0.00594481       0.02339762      -0.01565490      -0.01368714       0.03110668       0.00002841       0.00240018      -0.22031499       0.00585460      -0.00544538      -0.00075726      -0.20914643
O        4.57464000       7.24228700       4.54085900      -0.16557425      -0.00172253      -0.00488002      -0.00811667       0.02041478       0.01100986      -0.00508764      -0.01012232       0.02374061      -0.16557425      -0.02469958       0.02631579       0.05678342       0.10861378
O        7.39383100       8.67291700       8.12344100      -0.23807082       0.01386743       0.02016771      -0.03206980       0.02486327       0.01626036      -0.05835532      -0.01951507      -0.02883411      -0.23807082       0.04097629       0.01261688      -0.01054644       0.02065481
O        5.33870300       5.97483700       6.42432500      -0.11871110       0.00123799       0.00014412      -0.00912589      -0.00066626       0.01213390      -0.00506765      -0.01087850       0.01094363      -0.11871110      -0.03613412       0.00586084      -0.01010738       0.23565931
H        3.97108300       4.11911100       4.84204600       0.11935538       0.05091111       0.09176533      -0.11300005      -0.01258324      -0.03216295      -0.00104686      -0.00310495       0.00761328       0.11935538      -0.03998278       0.02678627       0.03449582       0.04773946
H        4.93552300       2.99322700       4.61005100       0.15961624      -0.13756626       0.04537773       0.06529214       0.00034514       0.00688758       0.00794914      -0.02744105       0.00766969       0.15961624       0.00577874      -0.06959880      -0.02232214       0.19701983
H        5.74894100       3.66187700       7.69094400       0.15606995      -0.08127417      -0.01289293      -0.13502791      -0.00096830       0.01377896       0.01579891      -0.02234294      -0.00634358       0.15606995      -0.01658467      -0.05388637      -0.00264184       0.16694593
H        6.67126600       4.50336500       8.59929600       0.15439081       0.06626239       0.14268783       0.02604878       0.01209925      -0.00761942      -0.00829478      -0.00730220       0.02142047       0.15439081       0.03624603      -0.02755642       0.06552567       0.24625279
H        8.39796600       5.80522600       5.24136500       0.18223030      -0.03254043      -0.15219906       0.06118381      -0.00937547      -0.01527375      -0.01641562       0.01219110      -0.00597144       0.18223030       0.03091153       0.02209772      -0.05484152       0.26148478
H        8.44891700       5.47608500       6.72494800       0.18449278      -0.07699684       0.11191787       0.08078751      -0.02314183       0.04178606       0.00546125      -0.00000498       0.01009049       0.18449278       0.02425133      -0.01456135       0.04622546       0.20288681
H        5.41774600       7.30457900       4.10881400       0.20361499       0.02920164      -0.07702148       0.14965030       0.00175515       0.01206159       0.00743510       0.00580365      -0.02014710       0.20361499       0.06675410       0.01445592      -0.00653602       0.08988029
H        4.14403000       6.76879700       3.82070400       0.21999527      -0.06260580      -0.12177719      -0.09296388      -0.00901420      -0.02255596       0.00637300      -0.02526410       0.02006318       0.21999527      -0.05436516      -0.02067265      -0.03670606       0.13227814
H        6.90627700       9.42677300       8.43214400       0.14756240       0.14007643       0.05277076      -0.06282056       0.01823490      -0.00583688      -0.00760241      -0.00568109       0.00984677       0.14756240      -0.00499562       0.06982800       0.03665078       0.28662892
H        6.67924500       8.04179900       8.24470500       0.09917379      -0.09046691       0.02925611      -0.09434709      -0.03920742      -0.01359758       0.00217167      -0.01974071       0.00987274       0.09917379      -0.01843587      -0.03929249      -0.00026532      -0.09440634
H        5.35617800       6.46638000       7.26794200       0.24984985       0.07059667       0.13458926      -0.02540020      -0.01705633      -0.03439931      -0.02068392      -0.02126627       0.02094324       0.24984985      -0.01406558       0.02884565       0.02487246       0.08504288
H        4.99079900       6.50542500       5.62959600       0.18058346       0.02036857      -0.01657430      -0.02651076       0.03460222       0.09023558      -0.07147631      -0.07004131       0.01841096       0.18058346      -0.01572265      -0.00616913      -0.05725961      -0.27889333
H        6.33254400       5.82028800       6.25956900       0.18765732      -0.01825778      -0.03485638       0.05350183       0.01502098       0.02819781       0.05505832       0.02003898      -0.07527238       0.18765732       0.01766771      -0.03704085      -0.01931598      -0.19869105
11
Lattice="40.0 0.0 0.0 0.0 40.0 0.0 0.0 0.0 40.0" Properties=species:S:1:pos:R:3:AIMS_atom_multipoles:R:9:aims_charges:R:1:MACE_forces:R:3:MACE_charges:R:1 config_type=carved_H7O4- AIMS_dipole="-6.059319218695963 -6.594575435556919 -7.133842941355489" calculation_time=4.527 number_of_scf_cylces=18.0 total_charge=-1.0 MACE_energy=-476.8252112186956 MACE_dipole="-6.356278113885369 -6.551630560577554 -6.49598513654203" pbc="F F F"
O        7.10375500       7.77890900       8.45475700      -0.31576629       0.00171389      -0.09502877       0.00913224       0.09967837       0.00776757      -0.02214279       0.00783886       0.00209707      -0.31576629      -0.01743836      -0.03862897       0.08741732      -0.24520848
O        4.88171200       4.77745700       7.87091000      -0.33883859       0.01208681      -0.10536770       0.00259091       0.04597331       0.01961651      -0.02940372       0.01544367      -0.09308949      -0.33883859       0.00297242       0.01546677       0.08713579      -0.13596683
O        7.68854400       7.20161000       4.80386800      -0.34794988      -0.07583509      -0.01647604      -0.08233091       0.00718415       0.05341216       0.07875856      -0.06494599       0.00773273      -0.34794988       0.02346124       0.03413279       0.02131217       0.00022102
O        5.41523100       6.71491200       6.13684900      -0.41469731       0.05832160       0.05682055       0.03825614      -0.03827351      -0.03515198      -0.05415508      -0.07256845      -0.06471131      -0.41469731      -0.00415182      -0.05064000      -0.01751539       0.02268836
H        7.73926000       8.38586400       8.03805300       0.09359244       0.09439102      -0.05370502       0.09794566       0.01933136       0.00888824       0.00520135       0.01761790      -0.00164306       0.09359244       0.07665893       0.05534930       0.00040933      -0.21249818
H        6.65018600       7.30763500       7.71879700       0.09807595      -0.05206698      -0.04742710      -0.03674575      -0.01052395      -0.04329604      -0.01544151      -0.05964326      -0.00664119       0.09807595      -0.00005567       0.03763111      -0.01460269       0.23973739
H        4.68074000       4.03413600       7.31893300       0.07022781      -0.11610658      -0.08489350      -0.02648653       0.01038952      -0.00713809       0.00597804       0.00004866      -0.02453739       0.07022781      -0.04140150      -0.10866355      -0.02925584      -0.28344773
H        4.99444000       5.53493700       7.25864300       0.04876529       0.03520549      -0.01552159       0.01532676      -0.00857104       0.08325821       0.00871552       0.00520320       0.01735684       0.04876529      -0.00478014       0.00361519      -0.01754264       0.11972314
H        7.70217900       6.70757400       3.96524300       0.06953460      -0.07018876      -0.12469373       0.00304959       0.01794368       0.00717931       0.01063270      -0.02259890       0.00379019       0.06953460       0.04857892      -0.03529515      -0.10115644      -0.37902775
H        6.92710000       6.89865400       5.36826800       0.04743819      -0.01618782       0.04347327      -0.01440681      -0.01251860       0.02817081       0.00848166       0.04605166      -0.06288601       0.04743819      -0.02024353       0.00430218      -0.00229272       0.16488530
H        5.21785500       7.67004600       6.22466100      -0.01038222       0.13083620       0.01906354      -0.00633913      -0.01647432      -0.00697976      -0.01980887      -0.02302878      -0.02836383      -0.01038222      -0.06360049       0.08273034      -0.01390888      -0.29110625
15
Lattice="40.0 0.0 0.0 0.0 40.0 0.0 0.0 0.0 40.0" Properties=species:S:1:pos:R:3:AIMS_atom_multipoles:R:9:aims_charges:R:1:MACE_forces:R:3:MACE_charges:R:1 config_type=carved_H10O5 AIMS_dipole="0.4049101791148005 -0.46909799011272013 -0.6101946047367015" calculation_time=5.697 number_of_scf_cylces=16.0 total_charge=0.0 MACE_energy=269.5243770828147 MACE_dipole="-0.022091128267996585 0.015689737792910163 0.01563439046015941" pbc="F F F"
O        8.04440400       4.24682300       4.24643800      -0.25908316       0.00276190      -0.03709053       0.03214087      -0.04904303      -0.03887980      -0.01192739      -0.02885338      -0.02965693      -0.25908316      -0.02319455      -0.00899839       0.03572468       0.04301937
O        6.74599700       8.83414800       3.33554000      -0.27279672      -0.05329867      -0.01202930      -0.03798558      -0.04718199       0.00179727      -0.05587305       0.02329805       0.01293445      -0.27279672       0.02256726       0.02691545       0.01003463       0.01715817
O        7.18076300       8.30475700       9.07248100      -0.26944750      -0.04023788      -0.00442939      -0.04608509      -0.03798752      -0.03605301      -0.04361965       0.03049017      -0.00751014      -0.26944750       0.03523867       0.02600700       0.00042887       0.02099843
O        3.67280200       6.59545600       8.39121100      -0.27936607       0.05113883      -0.00286413       0.04456453       0.00496489       0.05609217       0.02598412      -0.05993054      -0.00419153      -0.27936607      -0.03024653      -0.02918267       0.00530952       0.04550857
O        6.09582800       6.27547000       6.34747600      -0.25330881      -0.02341632      -0.00835131       0.03388264       0.02993394       0.02340506      -0.04165159      -0.01672258      -0.00829687      -0.25330881      -0.02047703       0.02055921       0.00979221       0.07757453
H        8.13539400       4.93969600       3.59270600       0.12896750       0.11744767      -0.10040069       0.00451745      -0.00784994       0.01054139      -0.00025591      -0.01401253       0.01472659       0.12896750      -0.00631329       0.04470445      -0.02390779      -0.01482734
H        8.74719800       3.58585200       3.98027100       0.14765083      -0.11345908      -0.02907575       0.10469937       0.00925186      -0.02262091       0.01177448      -0.00939260      -0.00676543       0.14765083       0.01994009      -0.02729629      -0.00039230      -0.02119665
H        5.82426600       8.82409600       3.11992500       0.13820087       0.02373748      -0.03343669      -0.15554135      -0.00604210       0.00879848      -0.01651517       0.00277885      -0.02283094       0.13820087      -0.04436446       0.00766661      -0.00815852      -0.01008075
H        7.11752200       7.92216600       3.31924900       0.13380906      -0.12857280      -0.00026929       0.07576958       0.01928168       0.01755698      -0.01330826       0.01532565       0.02901362       0.13380906       0.02071028      -0.04119697       0.00874507      -0.00686691
H        7.19220700       7.38848400       9.30007500       0.13421956      -0.14722603       0.04674521       0.02500927      -0.00645645      -0.01146452      -0.01128941       0.00576440       0.02278185       0.13421956       0.00533985      -0.04995503       0.00673177      -0.01396981
H        6.29282100       8.47987900       8.79283700       0.13198759       0.05428922      -0.04733807      -0.13156946      -0.00862777      -0.01789003      -0.00370834      -0.01088805      -0.02993188       0.13198759      -0.03839233       0.01986327      -0.02313120      -0.00313910
H        3.70634800       7.34279200       9.00626500       0.11875296       0.10914002       0.10750712      -0.01534715       0.00444922      -0.00679270       0.00371658      -0.02437949       0.00395997       0.11875296      -0.00760260       0.02879543       0.03282231      -0.01732337
H        4.40676300       6.72499500       7.74151700       0.11278492       0.00706706      -0.08262379       0.06901894       0.01805548       0.00909148      -0.00999807       0.04801071      -0.05085745       0.11278492       0.02037825       0.00156866      -0.02655018      -0.04117528
H        6.15297100       5.38050900       6.05937300       0.14133491      -0.14367940      -0.03366764      -0.02134813       0.02646665      -0.02393819      -0.00797639       0.01083074       0.02201950       0.14133491       0.00675028      -0.04893824      -0.02327635      -0.03984664
H        6.97760800       6.66969200       6.23528700       0.14629407       0.07165749      -0.01250221       0.13114394      -0.01489220       0.00160442      -0.01192276      -0.00276899      -0.00706582       0.14629407       0.03966611       0.02948753      -0.00417271      -0.03583323
14
Lattice="40.0 0.0 0.0 0.0 40.0 0.0 0.0 0.0 40.0" Properties=species:S:1:pos:R:3:AIMS_atom_multipoles:R:9:aims_charges:R:1:MACE_forces:R:3:MACE_charges:R:1 config_type=carved_H9O5- AIMS_dipole="-5.75896493910842 -5.7107560925991585 -7.6946190031464115" calculation_time=6.6 number_of_scf_cylces=21.0 total_charge=-1.0 MACE_energy=-423.14406798948767 MACE_dipole="-6.235202850338851 -6.62946550877563 -6.019049573965973" pbc="F F F"
O        5.80502900       6.84611700       9.41776700      -0.30454905       0.03154910      -0.08956593       0.01371295      -0.02956823       0.03440580      -0.05479037      -0.03757396      -0.04793906      -0.30454905       0.01426809      -0.07246580       0.10305668      -0.31761426
O        6.16569100       4.59744400       3.51215600      -0.28204150       0.07095583       0.00553390       0.01886729      -0.00587127      -0.04395571      -0.03560597       0.07365159       0.03670668      -0.28204150      -0.03161277      -0.08563053      -0.00035486      -0.08734108
O        8.30886800       6.30409900       4.58486500      -0.17200191       0.00353839       0.01976481       0.00074981      -0.01570295      -0.02565194      -0.04777035      -0.00081871      -0.00051346      -0.17200191      -0.02037056       0.00964834       0.00384600       0.48786073
O        3.43878400       7.75611100       7.94349400      -0.30751408      -0.07999299       0.00107471       0.03338357       0.02623119       0.02358727       0.00841890       0.09338290       0.00307088      -0.30751408      -0.03871846       0.07736165       0.04876431      -0.23169243
O        6.85625600       6.00085300       6.95043400      -0.59263303       0.08479154      -0.06311381       0.05398010       0.01899302       0.02100620       0.16930617      -0.17355435       0.03477993      -0.59263303       0.00548743      -0.04849468       0.05737002      -0.21758124
H        5.75616600       7.82255600       9.24029000       0.08714017       0.13092989      -0.02332025      -0.01669618      -0.00788705       0.01419165      -0.00642370      -0.02343565      -0.01093071       0.08714017      -0.00059695       0.06628976       0.01773024      -0.14216727