17
Lattice="40.0 0.0 0.0 0.0 40.0 0.0 0.0 0.0 40.0" Properties=species:S:1:pos:R:3:forces:R:3:AIMS_atom_multipoles:R:9:aims_charges:R:1 config_type=carved_H11O6- energy=-12466.9070392309 AIMS_dipole="-7.244330775913459 -7.286535646358292 -6.712857083030709" calculation_time=9.45 number_of_scf_cylces=19.0 total_charge=-1.0 pbc="F F F"
O        4.60209100       8.37513600       6.38635000       0.55102823      -0.82156018       1.62248816      -0.28838281       0.01045736      -0.06450341       0.02196202      -0.00636064      -0.03616360      -0.02910039       0.03313210       0.04523677      -0.28838281
O        7.37853300       8.24298600       8.20292300       1.28737742       0.02512507      -0.19620222      -0.32705374      -0.05712298      -0.07535609       0.03604312       0.05047922       0.03042734      -0.05883510       0.01603301       0.05828655      -0.32705374
O        8.49254000       3.26564500       6.81422300      -0.50917798      -0.89577434      -0.34471888      -0.26331598       0.00289618      -0.01890260      -0.06176022       0.00775604       0.07831022       0.02385300      -0.03516665       0.00760201      -0.26331598
O        6.34969200       6.12771200       6.83285000      -1.86262574       0.12062336       0.02208551      -0.29986664       0.06246383      -0.04904971       0.01558983      -0.04461505       0.01450819      -0.00626086       0.00968903       0.05841133      -0.29986664
O        6.67380800       9.04184000       4.88515200      -0.50704690      -0.75384177      -0.55148606      -0.29386011      -0.01944051       0.05963484       0.05033415       0.02547009       0.03477373      -0.06730784      -0.02328669      -0.02138779      -0.29386011
O        7.97062900       6.75260000       5.01939300       0.15812562       1.18987807       0.80109243      -0.39882875      -0.01458720      -0.02773249      -0.11285152      -0.00313447       0.04705766       0.07867873      -0.00461638      -0.08089216      -0.39882875
H        3.92746000       8.64609700       5.79924000      -1.08074351       0.57261852      -1.28350950       0.08868605       0.03877304      -0.08784236      -0.11381530       0.00540992      -0.01034677      -0.00533951      -0.00636872       0.01493117       0.08868605
H        5.46736800       8.60686200       5.96111300       0.02605936       0.48397391      -0.37009477       0.09425520       0.00166462      -0.00946170       0.06510712      -0.02637455       0.02105690       0.01170710       0.05823280      -0.03587500       0.09425520
H        8.35469100       8.25959800       8.00015700      -1.31288668      -0.14366284       0.13528949       0.08560588       0.00827977      -0.02979516       0.14058951       0.01145817       0.01621911      -0.01336200       0.00847566      -0.00157367       0.08560588
H        7.02322800       7.48897000       7.63065100       0.13089447       0.17085957       0.45162557       0.08936981      -0.03758759      -0.04594687      -0.02695275      -0.05233731      -0.03486588      -0.00503724      -0.03748996       0.04413404       0.08936981
H        7.66447900       3.43624500       7.29163600       0.06471473       0.57199854       0.21147406       0.12563892       0.03253558       0.07916823      -0.10798390       0.04654427       0.01614284       0.01892198       0.01305685      -0.00013418       0.12563892
H        8.13462400       2.68239100       6.10994400       0.49311468       0.34898057       0.13819079       0.11274975      -0.08088422      -0.11835404      -0.04370609       0.00114061       0.00717895      -0.00554960      -0.01822391       0.01821409       0.11274975
H        5.52950400       6.56109500       6.43922300       0.96514983      -0.54538424       0.89326666       0.07908575       0.03721280      -0.04455323      -0.07643105       0.04174801       0.01354005       0.04256105      -0.01134000       0.01608379       0.07908575
H        7.00843600       6.27092900       6.06984100       0.77871185       0.01037162      -0.62267862       0.04312839      -0.00371577      -0.01612024       0.02869966      -0.02025183       0.01878403      -0.01375673       0.07825055      -0.02004438       0.04312839
H        7.27338600       9.73760900       5.13936400       0.58293784       0.27137335       0.34173358       0.09312497       0.10761940       0.04496540       0.08748444      -0.00758276       0.00488492      -0.02533262      -0.00440467      -0.00304309       0.09312497
H        7.19774100       8.11531200       4.91002000       0.47744337       0.09070709      -0.01763928       0.06491086      -0.03031001       0.01000538      -0.00550426       0.07291337       0.01518490       0.03614907       0.01997035       0.03582387       0.06491086
H        7.74153400       6.31336800       4.21707700      -0.24307658      -0.69628629      -1.23091692      -0.00524757      -0.06443873      -0.10805212      -0.05056693       0.00116349       0.01798712       0.01981329       0.00909268      -0.01984200      -0.00524757
11
Lattice="40.0 0.0 0.0 0.0 40.0 0.0 0.0 0.0 40.0" Properties=species:S:1:pos:R:3:forces:R:3:AIMS_atom_multipoles:R:9:aims_charges:R:1 config_type=carved_H7O4- energy=-8304.26973429652 AIMS_dipole="-5.0824735680136595 -3.9666139257341197 -5.8977183950942" calculation_time=9.12 number_of_scf_cylces=43.0 total_charge=-1.0 pbc="F F F"
O        5.21368600       7.87836200       7.94485800       0.53375238       0.70550292       0.19864183      -0.23068856       0.01331846      -0.00183378       0.05964411       0.01736403      -0.02281270       0.06338691       0.01470992      -0.03657323      -0.23068856
O        7.13064800       5.83108000       7.39984800       0.95372861       0.16291051       0.09474785      -0.26407025      -0.02971488       0.05226213      -0.05129781      -0.07833625       0.00797172       0.00474783       0.03318545      -0.01933710      -0.26407025
O        5.50976300       4.62238700       3.83849800       0.32453245       0.13827858      -1.19359479      -0.33821751       0.02771722       0.07883235      -0.08116531      -0.05354240      -0.09498259      -0.00136740       0.02217796      -0.02832417      -0.33821751
O        4.94415000       3.89303000       6.69336700       0.46854363       0.13156464      -0.30256520      -0.61371434       0.11765828      -0.07561167       0.15633051       0.12882469       0.05734297       0.01837168       0.08841524       0.06787193      -0.61371434
H        5.66750900       8.05725000       8.80707200      -0.35490068       0.14481487      -0.64821438       0.09045663      -0.01016738       0.10011645       0.04585744       0.01100712      -0.03159644      -0.00300598      -0.01404389      -0.00737229       0.09045663
H        5.60818200       8.52697000       7.30325100      -0.25847193      -0.58265408       0.65474478       0.11235977       0.05610407      -0.10365479       0.04028986      -0.00032518       0.01174813       0.02111907       0.01891947       0.00414699       0.11235977
H        7.54014400       5.23037000       8.05619500      -0.64349599       0.54538341      -0.13343076       0.10940839      -0.10819701       0.07319872       0.06069259      -0.03524228       0.01554920       0.01151418      -0.00907916       0.00753645       0.10940839
H        6.51456200       6.46847900       7.82408700       0.07001190      -0.69333867      -0.03862128       0.08978644       0.04647942       0.03093764      -0.06698895       0.02940004      -0.02401203       0.05807455       0.01468962      -0.00775526       0.08978644
H        4.87985600       5.33292700       3.61292800       0.08635694      -0.53389370       0.66250623       0.07290689       0.10548081      -0.03463572      -0.08021682      -0.00748709      -0.02973199       0.00848887      -0.00826300      -0.00119359       0.07290689
H        5.24403100       4.17047200       4.67686400      -0.43239549       0.41243068       0.93475215       0.05127474      -0.03231654       0.02841538       0.00734585      -0.02352852       0.03434052      -0.05310954       0.03217385       0.01555201       0.05127474
H        5.76804700       4.41255300       6.85664100      -0.74766182      -0.43099915      -0.22896643      -0.07950220       0.06507947      -0.01207118       0.09179758       0.02056731       0.01251803       0.00478180       0.01555537       0.03189410      -0.07950220
13
Lattice="40.0 0.0 0.0 0.0 40.0 0.0 0.0 0.0 40.0" Properties=species:S:1:pos:R:3:forces:R:3:AIMS_atom_multipoles:R:9:aims_charges:R:1 config_type=carved_H9O4+ energy=-8330.31977414031 AIMS_dipole="7.33899002308109 5.91406655837134 6.42116170609381" calculation_time=5.085 number_of_scf_cylces=18.0 total_charge=1.0 pbc="F F F"
O        8.85935600       6.67299400       5.53551900       1.12899500      -0.65466940      -1.33369523      -0.17143625       0.00129756      -0.00811359      -0.00057693      -0.01922488      -0.00864408       0.00038284       0.00022608      -0.02818088      -0.17143625
O        6.09245100       4.07314200       6.15497800       0.41144665       0.42117600      -0.52276586      -0.19891208      -0.01843942       0.00607483       0.00153878      -0.01202603      -0.00563798       0.00216351      -0.03177669       0.00272917      -0.19891208
O        3.63762800       8.34424900       5.39651800       0.92216589      -0.64768578       1.47644162      -0.27448075       0.05868136       0.01743901      -0.02694310      -0.02519289      -0.00392607       0.05568532       0.05081248      -0.01657630      -0.27448075
O        6.78807400       6.41798000       6.74545300      -0.27886909       4.23054230       3.37657964      -0.13152118       0.00092247       0.01090216      -0.00682286       0.00257429      -0.00527607       0.00232881       0.00198232       0.00249244      -0.13152118
H        8.88987400       7.16716100       4.69724100      -0.35006232       0.80454923       0.17577541       0.21979111       0.09884248      -0.13895614       0.00722299      -0.00350840       0.02915328      -0.01489995      -0.00142324       0.00787966       0.21979111
H        9.24538600       5.84015800       5.17724700      -0.10276576       0.00262518       0.82570681       0.21293364      -0.14254857      -0.05180657       0.07256433       0.01561120      -0.01434456       0.01797121       0.00737279       0.01605985       0.21293364
H        5.63985200       3.68757400       6.90002200      -0.62012652      -0.49220483       0.68073168       0.20012490      -0.06077250       0.12701875      -0.09501318      -0.02007424       0.01225285      -0.01460290       0.01460831      -0.00602566       0.20012490
H        6.71882100       3.39596400       5.86864600       0.12832306      -0.23073339      -0.16196877       0.19903711      -0.11389443      -0.06461088       0.10381912       0.02157733      -0.02048500       0.01194070       0.00553383      -0.00399783       0.19903711
H        3.17461400       9.02403600       4.92903400      -0.65248644       0.90447323      -0.63561946       0.14551844       0.10382200      -0.09441083      -0.08264851       0.00049144       0.02393443       0.01366278       0.00115141      -0.00912777       0.14551844
H        3.78285000       8.72630500       6.29560700      -0.25561937      -0.24247796      -0.81582762       0.13061560       0.05054287       0.14410871       0.02181550      -0.01340243      -0.00952954      -0.00784691       0.00246661      -0.01455076       0.13061560
H        6.57150000       5.50361700       6.54029900      -1.25185765      -2.72815464       0.20493861       0.18457358      -0.04729459      -0.02024188      -0.02081829      -0.05960573      -0.05046219       0.06820853      -0.02067774       0.09929347       0.18457358
H        7.68958000       6.59384900       6.27165200       0.59686113       0.42535873      -0.22418626       0.18485836       0.03048669      -0.00906497       0.03527040      -0.02560715       0.00947649       0.00896848       0.11873061      -0.08993497       0.18485836
H        6.68042400       6.83985400       7.72275900       0.32399541      -1.79279867      -3.04611058       0.29889751       0.07618333       0.14633807      -0.02428012       0.01524720      -0.03230349      -0.03730938       0.00544024       0.00430635       0.29889751
19
Lattice="40.0 0.0 0.0 0.0 40.0 0.0 0.0 0.0 40.0" Properties=species:S:1:pos:R:3:forces:R:3:AIMS_atom_multipoles:R:9:aims_charges:R:1 config_type=carved_H13O6+ energy=-12490.702428155 AIMS_dipole="5.500157301985241 5.90539901055866 6.307654306298251" calculation_time=10.093 number_of_scf_cylces=17.0 total_charge=1.0 pbc="F F F"
O        4.54507000       3.79941900       4.18657000       1.93461869      -1.35929668      -0.98771718      -0.25969547      -0.02911633       0.04143962      -0.01652105      -0.06106064      -0.00118635      -0.00704649      -0.02570865      -0.01075882      -0.25969547
O        6.63157600       4.05837200       7.71933800       0.20710899       0.48586161       0.84028575      -0.24222592      -0.00223878       0.02561317      -0.02863775       0.03447870       0.03455057       0.01540253       0.00882613       0.01625851      -0.24222592
O        8.07613400       6.07661900       6.08333300      -1.53840484       0.93317125       0.74810471      -0.22031499      -0.02464113      -0.00594481       0.02339762      -0.01565490      -0.01368714       0.03110668       0.00002841       0.00240018      -0.22031499
O        4.57464000       7.24228700       4.54085900      -0.41300930       0.10830447      -0.33106694      -0.16557425      -0.00172253      -0.00488002      -0.00811667       0.02041478       0.01100986      -0.00508764      -0.01012232       0.02374061      -0.16557425
O        7.39383100       8.67291700       8.12344100       0.05415214      -0.65404905      -0.30890640      -0.23807082       0.01386743       0.02016771      -0.03206980       0.02486327       0.01626036      -0.05835532      -0.01951507      -0.02883411      -0.23807082
O        5.33870300       5.97483700       6.42432500       1.16069564      -0.90063114       1.60471680      -0.11871110       0.00123799       0.00014412      -0.00912589      -0.00066626       0.01213390      -0.00506765      -0.01087850       0.01094363      -0.11871110
H        3.97108300       4.11911100       4.84204600      -1.66890573       0.66350021       1.58996024       0.11935538       0.05091111       0.09176533      -0.11300005      -0.01258324      -0.03216295      -0.00104686      -0.00310495       0.00761328       0.11935538
H        4.93552300       2.99322700       4.61005100      -0.33063803       0.65267284      -0.61884445       0.15961624      -0.13756626       0.04537773       0.06529214       0.00034514       0.00688758       0.00794914      -0.02744105       0.00766969       0.15961624
H        5.74894100       3.66187700       7.69094400      -0.01852937      -0.20439560       0.14138267       0.15606995      -0.08127417      -0.01289293      -0.13502791      -0.00096830       0.01377896       0.01579891      -0.02234294      -0.00634358       0.15606995
H        6.67126600       4.50336500       8.59929600       0.01082047      -0.66523347      -0.45850031       0.15439081       0.06626239       0.14268783       0.02604878       0.01209925      -0.00761942      -0.00829478      -0.00730220       0.02142047       0.15439081
H        8.39796600       5.80522600       5.24136500       0.72497248      -0.49402760      -1.33888360       0.18223030      -0.03254043      -0.15219906       0.06118381      -0.00937547      -0.01527375      -0.01641562       0.01219110      -0.00597144       0.18223030
H        8.44891700       5.47608500       6.72494800       0.44956565      -0.58933619       0.43490513       0.18449278      -0.07699684       0.11191787       0.08078751      -0.02314183       0.04178606       0.00546125      -0.00000498       0.01009049       0.18449278
H        5.41774600       7.30457900       4.10881400       1.57300040       0.88223546      -0.43229548       0.20361499       0.02920164      -0.07702148       0.14965030       0.00175515       0.01206159       0.00743510       0.00580365      -0.02014710       0.20361499
H        4.14403000       6.76879700       3.82070400      -1.15376797      -0.45916524      -0.15952648       0.21999527      -0.06260580      -0.12177719      -0.09296388      -0.00901420      -0.02255596       0.00637300      -0.02526410       0.02006318       0.21999527
H        6.90627700       9.42677300       8.43214400      -0.05011025       1.57961180       0.38009101       0.14756240       0.14007643       0.05277076      -0.06282056       0.01823490      -0.00583688      -0.00760241      -0.00568109       0.00984677       0.14756240
H        6.67924500       8.04179900       8.24470500       0.00004554      -0.77848343       0.06871139       0.09917379      -0.09046691       0.02925611      -0.09434709      -0.03920742      -0.01359758       0.00217167      -0.01974071       0.00987274       0.09917379
H        5.35617800       6.46638000       7.26794200      -0.48144251       0.12459112      -0.18042614       0.24984985       0.07059667       0.13458926      -0.02540020      -0.01705633      -0.03439931      -0.02068392      -0.02126627       0.02094324       0.24984985
H        4.99079900       6.50542500       5.62959600      -1.01061517       0.97254522      -0.93073610       0.18058346       0.02036857      -0.01657430      -0.02651076       0.03460222       0.09023558      -0.07147631      -0.07004131       0.01841096       0.18058346
H        6.33254400       5.82028800       6.25956900       0.55044316      -0.29787558      -0.06125462       0.18765732      -0.01825778      -0.03485638       0.05350183       0.01502098       0.02819781       0.05505832       0.02003898      -0.07527238       0.18765732
11
Lattice="40.0 0.0 0.0 0.0 40.0 0.0 0.0 0.0 40.0" Properties=species:S:1:pos:R:3:forces:R:3:AIMS_atom_multipoles:R:9:aims_charges:R:1 config_type=carved_H7O4- energy=-8306.13304891534 AIMS_dipole="-6.059319218695963 -6.594575435556919 -7.133842941355489" calculation_time=4.527 number_of_scf_cylces=18.0 total_charge=-1.0 pbc="F F F"
O        7.10375500       7.77890900       8.45475700       0.30131580       0.31809410       0.42850412      -0.31576629       0.00171389      -0.09502877       0.00913224       0.09967837       0.00776757      -0.02214279       0.00783886       0.00209707      -0.31576629
O        4.88171200       4.77745700       7.87091000      -0.11449084      -0.38087212       1.61682076      -0.33883859       0.01208681      -0.10536770       0.00259091       0.04597331       0.01961651      -0.02940372       0.01544367      -0.09308949      -0.33883859
O        7.68854400       7.20161000       4.80386800       1.38454717       0.39937222      -0.67273534      -0.34794988      -0.07583509      -0.01647604      -0.08233091       0.00718415       0.05341216       0.07875856      -0.06494599       0.00773273      -0.34794988
O        5.41523100       6.71491200       6.13684900       0.46576857       0.49853583       0.23833369      -0.41469731       0.05832160       0.05682055       0.03825614      -0.03827351      -0.03515198      -0.05415508      -0.07256845      -0.06471131      -0.41469731
H        7.73926000       8.38586400       8.03805300      -0.25218766      -0.31226040      -0.15249551       0.09359244       0.09439102      -0.05370502       0.09794566       0.01933136       0.00888824       0.00520135       0.01761790      -0.00164306       0.09359244
H        6.65018600       7.30763500       7.71879700      -0.17345403      -0.07227021      -0.36818124       0.09807595      -0.05206698      -0.04742710      -0.03674575      -0.01052395      -0.04329604      -0.01544151      -0.05964326      -0.00664119       0.09807595
H        4.68074000       4.03413600       7.31893300      -0.19896703      -0.71237884      -0.68785580       0.07022781      -0.11610658      -0.08489350      -0.02648653       0.01038952      -0.00713809       0.00597804       0.00004866      -0.02453739       0.07022781
H        4.99444000       5.53493700       7.25864300       0.28144303       1.07186284      -0.90040563       0.04876529       0.03520549      -0.01552159       0.01532676      -0.00857104       0.08325821       0.00871552       0.00520320       0.01735684       0.04876529
H        7.70217900       6.70757400       3.96524300      -0.36314454       0.01646224       0.51077934       0.06953460      -0.07018876      -0.12469373       0.00304959       0.01794368       0.00717931       0.01063270      -0.02259890       0.00379019       0.06953460
H        6.92710000       6.89865400       5.36826800      -1.17029296      -0.33850659       0.04545891       0.04743819      -0.01618782       0.04347327      -0.01440681      -0.01251860       0.02817081       0.00848166       0.04605166      -0.06288601       0.04743819
H        5.21785500       7.67004600       6.22466100      -0.16053750      -0.48803906      -0.05822328      -0.01038222       0.13083620       0.01906354      -0.00633913      -0.01647432      -0.00697976      -0.01980887      -0.02302878      -0.02836383      -0.01038222
15
Lattice="40.0 0.0 0.0 0.0 40.0 0.0 0.0 0.0 40.0" Properties=species:S:1:pos:R:3:forces:R:3:AIMS_atom_multipoles:R:9:aims_charges:R:1 config_type=carved_H10O5 energy=-10401.3877291026 AIMS_dipole="0.4049101791148005 -0.46909799011272013 -0.6101946047367015" calculation_time=5.697 number_of_scf_cylces=16.0 total_charge=0.0 pbc="F F F"
O        8.04440400       4.24682300       4.24643800       0.89220959      -1.32075064       0.08969737      -0.25908316       0.00276190      -0.03709053       0.03214087      -0.04904303      -0.03887980      -0.01192739      -0.02885338      -0.02965693      -0.25908316
O        6.74599700       8.83414800       3.33554000       1.83774861      -0.19200125       0.35912744      -0.27279672      -0.05329867      -0.01202930      -0.03798558      -0.04718199       0.00179727      -0.05587305       0.02329805       0.01293445      -0.27279672
O        7.18076300       8.30475700       9.07248100       1.10070611       1.11555105       0.02594637      -0.26944750      -0.04023788      -0.00442939      -0.04608509      -0.03798752      -0.03605301      -0.04361965       0.03049017      -0.00751014      -0.26944750
O        3.67280200       6.59545600       8.39121100       0.39454806      -0.04047544      -0.44268682      -0.27936607       0.05113883      -0.00286413       0.04456453       0.00496489       0.05609217       0.02598412      -0.05993054      -0.00419153      -0.27936607
O        6.09582800       6.27547000       6.34747600      -0.18371228       1.60377163       0.50031911      -0.25330881      -0.02341632      -0.00835131       0.03388264       0.02993394       0.02340506      -0.04165159      -0.01672258      -0.00829687      -0.25330881
H        8.13539400       4.93969600       3.59270600       0.07136215       0.44240301      -0.48839399       0.12896750       0.11744767      -0.10040069       0.00451745      -0.00784994       0.01054139      -0.00025591      -0.01401253       0.01472659       0.12896750
H        8.74719800       3.58585200       3.98027100      -0.97774297       0.88257098       0.40517361       0.14765083      -0.11345908      -0.02907575       0.10469937       0.00925186      -0.02262091       0.01177448      -0.00939260      -0.00676543       0.14765083
H        5.82426600       8.82409600       3.11992500      -1.02007397      -0.50895324      -0.25997550       0.13820087       0.02373748      -0.03343669      -0.15554135      -0.00604210       0.00879848      -0.01651517       0.00277885      -0.02283094       0.13820087
H        7.11752200       7.92216600       3.31924900      -0.82947057       0.72544949      -0.10029236       0.13380906      -0.12857280      -0.00026929       0.07576958       0.01928168       0.01755698      -0.01330826       0.01532565       0.02901362       0.13380906
H        7.19220700       7.38848400       9.30007500      -0.04728225      -1.28248264       0.30483656       0.13421956      -0.14722603       0.04674521       0.02500927      -0.00645645      -0.01146452      -0.01128941       0.00576440       0.02278185       0.13421956
H        6.29282100       8.47987900       8.79283700      -1.01561309       0.17119009      -0.33895726       0.13198759       0.05428922      -0.04733807      -0.13156946      -0.00862777      -0.01789003      -0.00370834      -0.01088805      -0.02993188       0.13198759
H        3.70634800       7.34279200       9.00626500       0.09319292       0.03181106      -0.11892347       0.11875296       0.10914002       0.10750712      -0.01534715       0.00444922      -0.00679270       0.00371658      -0.02437949       0.00395997       0.11875296
H        4.40676300       6.72499500       7.74151700      -0.45520665      -0.04007517       0.51579039       0.11278492       0.00706706      -0.08262379       0.06901894       0.01805548       0.00909148      -0.00999807       0.04801071      -0.05085745       0.11278492
H        6.15297100       5.38050900       6.05937300       0.31354244      -1.36333890      -0.48495102       0.14133491      -0.14367940      -0.03366764      -0.02134813       0.02646665      -0.02393819      -0.00797639       0.01083074       0.02201950       0.14133491
H        6.97760800       6.66969200       6.23528700      -0.17420810      -0.22467003       0.03328956       0.14629407       0.07165749      -0.01250221       0.13114394      -0.01489220       0.00160442      -0.01192276      -0.00276899      -0.00706582       0.14629407
14
Lattice="40.0 0.0 0.0 0.0 40.0 0.0 0.0 0.0 40.0" Properties=species:S:1:pos:R:3:forces:R:3:AIMS_atom_multipoles:R:9:aims_charges:R:1 config_type=carved_H9O5- energy=-10384.6617931959 AIMS_dipole="-5.75896493910842 -5.7107560925991585 -7.6946190031464115" calculation_time=6.6 number_of_scf_cylces=21.0 total_charge=-1.0 pbc="F F F"
O        5.80502900       6.84611700       9.41776700       0.13419314       1.25729296      -0.33865813      -0.30454905       0.03154910      -0.08956593       0.01371295      -0.02956823       0.03440580      -0.05479037      -0.03757396      -0.04793906      -0.30454905
O        6.16569100       4.59744400       3.51215600      -1.91645795       0.03546087      -1.54804235      -0.28204150       0.07095583       0.00553390       0.01886729      -0.00587127      -0.04395571      -0.03560597       0.07365159       0.03670668      -0.28204150
O        8.30886800       6.30409900       4.58486500       3.27094006       0.74824231      -1.09141364      -0.17200191       0.00353839       0.01976481       0.00074981      -0.01570295      -0.02565194      -0.04777035      -0.00081871      -0.00051346      -0.17200191
O        3.43878400       7.75611100       7.94349400      -1.35849803       1.31905371      -0.53136309      -0.30751408      -0.07999299       0.00107471       0.03338357       0.02623119       0.02358727       0.00841890       0.09338290       0.00307088      -0.30751408
O        6.85625600       6.00085300       6.95043400      -0.90684007      -0.11144049       1.73938786      -0.59263303       0.08479154      -0.06311381       0.05398010       0.01899302       0.02100620       0.16930617      -0.17355435       0.03477993      -0.59263303
H        5.75616600       7.82255600       9.24029000       0.17955455      -0.96226906       0.34806696       0.08714017       0.13092989      -0.02332025      -0.01669618      -0.00788705       0.01419165      -0.00642370      -0.02343565      -0.01093071       0.08714017
H        6.35859900       6.57479700       8.61052900      -0.12961187      -0.35165285      -0.52366427       0.04881017      -0.03042262      -0.00922938       0.00728895       0.01795635      -0.02294869      -0.04021126       0.04542118      -0.03605346       0.04881017
H        6.94060000       5.08929100       3.71251000       1.77524147       0.65876633       1.01300343       0.09585798       0.04095641       0.03616947       0.08439558      -0.05649460      -0.03661709       0.00397199      -0.00906079      -0.02485384       0.09585798
H        5.69106400       5.30181900       3.00223300       0.01056410      -0.85765491       0.46479086       0.09886799       0.09647885      -0.06545595      -0.07985328       0.01983197      -0.00446701      -0.01350571       0.01300478       0.01025888       0.09886799
H        8.21870800       7.23790300       4.35836700      -1.21088471       0.57775516       0.06101401       0.11535693       0.12914212      -0.02387704      -0.02664855       0.01454037      -0.00461858      -0.00575815       0.00723880       0.02244950       0.11535693
H        9.32855800       6.38571700       4.52476000      -1.64744276      -1.16670350       0.40887909       0.12287553      -0.00034633       0.00667592       0.13621357      -0.00349268      -0.00615557      -0.01115564      -0.00115651      -0.02115713       0.12287553
H        4.04788100       7.29568900       8.49167800       1.86589687      -0.73743215       1.38233094       0.09208632      -0.04638502       0.05387186       0.05377462       0.03499035       0.03018795      -0.00119953      -0.03347171      -0.04858640       0.09208632
H        3.09144200       7.00222300       7.48215100      -0.55693871      -0.60435479      -0.92915520       0.10691300      -0.11303587      -0.07552937      -0.05630710      -0.00128784      -0.01672842      -0.00282977       0.03156419      -0.00648687       0.10691300
H        7.33759000       6.20555100       6.16233800       0.49028390       0.19493643      -0.45517648      -0.10916853       0.00126041      -0.10457726       0.03842411       0.01859458      -0.01008299       0.03758274      -0.04171889       0.00603627      -0.10916853
6