24
Properties=species:S:1:pos:R:3:dft_forces:R:3:MACE_forces:R:3 dft_energy=-16630.55740285517 MACE_energy=-16630.3798245461 pbc="F F F"
O       -1.54468739      -1.56514304       0.63351883      -0.00707552      -0.16411800      -0.42247501       0.00516072      -0.15634691      -0.42555791
H       -1.88043916      -1.00888889      -0.08146416       0.16407332      -0.05539843       0.23076342       0.16641550      -0.04903483       0.23012961
H       -0.74550187      -1.98292690       0.28675867      -0.14411744       0.22093697       0.13328430      -0.14098508       0.23089471       0.12947976
O       -0.87132537       2.08928329       0.33580352       0.33769154       0.09373096       0.28690001       0.34220569       0.08098738       0.28619088
H        0.03299320       2.13750154      -0.00089489      -0.26239508      -0.13835637       0.03307663      -0.26136058      -0.14360764       0.03194429
H       -0.81631362       1.59393436       1.16342152      -0.02703741       0.02488592      -0.28523435      -0.02614839       0.01860416      -0.28640540
O        0.96675241      -2.32966774      -0.48368053       0.11700166      -0.06776271      -0.52550797       0.11288509      -0.06687849      -0.52651273
H        0.84456385      -1.66198986      -1.18257189       0.04958517      -0.43295519       0.57004354       0.04327556      -0.42686539       0.56743753
H        1.33577097      -3.10249185      -0.90194973      -0.10948406       0.26779502       0.07892094      -0.11118581       0.26643714       0.08345933
O       -0.62435090       0.21205456       2.48216189      -0.35270905      -0.38342875       0.15578860      -0.35983140      -0.37701715       0.15103323
H       -1.01708519      -0.46602123       1.90324391       0.34214449       0.51917359       0.35475580       0.34379518       0.51558678       0.34935233
H       -1.00797808       0.09271962       3.34643639       0.08255458      -0.00341227      -0.28823915       0.08682094      -0.00101327      -0.28771153
O        0.51163471      -0.27460664      -2.21357142      -0.14006209       0.42935539      -0.07540882      -0.14675509       0.42298357      -0.07154644
H       -0.42417681      -0.06605809      -2.09420936       0.25966457      -0.10807679       0.09990032       0.25989890      -0.10998402       0.10153484
H        0.99618042       0.46801454      -1.83006321      -0.13422918      -0.25454875       0.01211350      -0.13345797      -0.25491301       0.01637123
O       -2.13421261       0.38640053      -1.37540544      -0.19841847       0.50532373       0.06502804      -0.20080825       0.49864367       0.07389885
H       -1.76360237       1.06927568      -0.78761120      -0.19672700      -0.55432788      -0.41270564      -0.19184686      -0.54854964      -0.41031346
H       -2.91693091       0.75876743      -1.77173351       0.24752716      -0.06827169       0.15551175       0.24838979      -0.07170874       0.15322229
O        1.79181135       1.73121292      -0.62307586       0.44745184      -0.05342773       0.29862980       0.44775298      -0.05474949       0.30158020
H        1.93612326       1.05873520       0.06693913      -0.19069827       0.46398887      -0.51341494      -0.19522277       0.45982948      -0.50647494
H        2.58913792       2.25100452      -0.67275320      -0.22042604      -0.19660718       0.05426674      -0.22402401      -0.19371461       0.05102949
O        1.90437782      -0.24953383       1.24424900      -0.17504200      -0.35089596       0.21232639      -0.20060980      -0.34762315       0.21091296
H        1.70057238      -1.05305999       0.74810590      -0.00672719       0.28673695       0.04380235      -0.00681059       0.28534197       0.03990447
H        1.13668526      -0.08851688       1.80834545       0.14736701       0.02125840      -0.25453553       0.14244625       0.02269747      -0.26295889
24
Properties=species:S:1:pos:R:3:dft_forces:R:3:MACE_forces:R:3 dft_energy=-16630.559267329518 MACE_energy=-16630.419200231358 pbc="F F F"
O        1.82190025       1.31675559      -0.44491932      -0.02879440      -0.11226337      -0.40748764      -0.03350010      -0.11140115      -0.41307802
H        1.04941332       1.60157663      -0.95040552       0.12927420      -0.13909962       0.22594465       0.12177891      -0.14390165       0.22885851
H        1.97952795       0.39875990      -0.70146040      -0.13812404       0.20888832       0.15603764      -0.14726512       0.20402544       0.15684957
O       -2.04290736      -1.49166966       0.42552664      -0.17859871      -0.23078692      -0.44109978      -0.18014779      -0.23061988      -0.44120284
H       -2.78377319      -2.08392658       0.33198597       0.23950183       0.17865990      -0.03274526       0.24276765       0.18148324      -0.03016980
H       -1.65851188      -1.37819380      -0.46238429      -0.22305067      -0.02935578       0.67693516      -0.21875305      -0.02951298       0.67471337
O       -1.66776800       1.30044752       0.88232931       0.01128092      -0.23868051       0.35451741       0.01266998      -0.24231352       0.35396246
H       -0.87759781       1.31589109       1.43799838      -0.13793363      -0.04187386      -0.25754038      -0.13302581      -0.04706401      -0.26077473
H       -1.93406511       0.37320811       0.83047852       0.16576130       0.22939898      -0.08056475       0.17256714       0.22561594      -0.08504399
O        1.86694371      -1.49623478      -0.92489145       0.14671009      -0.37987522       0.34638424       0.14417916      -0.38013580       0.33912796
H        1.48114574      -1.63352645      -0.04096083       0.22927449       0.16304487      -0.65318325       0.22678884       0.16596487      -0.65190817
H        2.53340697      -2.16735025      -1.04249672      -0.21819576       0.18469778       0.09322713      -0.22098557       0.18837892       0.09198437
O       -0.75557810      -0.98312157      -1.92709425       0.30812740       0.19291189      -0.22755159       0.31484325       0.19942796      -0.21276353
H       -0.76730502      -0.01947612      -1.99510661       0.00000766      -0.25216621       0.15355699       0.00425389      -0.24877063       0.16127601
H        0.16280955      -1.22229290      -1.74616149      -0.26707567       0.09622941       0.08224769      -0.26479011       0.09915616       0.08926632
O        0.60144585      -1.63408149       1.48968431      -0.28962471       0.15054237       0.27849024      -0.29401253       0.15428641       0.27187909
H       -0.33462501      -1.69517488       1.25856861       0.27710555       0.08585392      -0.05160374       0.27603664       0.09180966      -0.05735040
H        0.72184229      -0.75249189       1.86608848      -0.02619168      -0.18609332      -0.22718958      -0.02955623      -0.18087042      -0.23308123
O        0.89964580       1.13396269       2.11763724       0.42084601       0.31194693      -0.10341548       0.42133723       0.30608374      -0.09531913
H        1.30749547       1.26836663       1.24321374      -0.35232225      -0.14920128       0.59938801      -0.35313337      -0.14942057       0.59743689
H        1.40297663       1.65189892       2.73956999      -0.11792988      -0.14026279      -0.23760193      -0.12148068      -0.14353446      -0.23963001
O       -0.72368217       1.85394174      -1.61827246      -0.38332184       0.30691739       0.19508092      -0.38536844       0.30467071       0.19739483
H       -1.13012934       1.74335343      -0.73986859       0.34571544       0.01377530      -0.62476115       0.34509771       0.01296862      -0.62024262
H       -1.15261054       2.59937769      -2.02905920       0.09665472      -0.22237823       0.17678398       0.09969842      -0.22632656       0.17781507
24
Properties=species:S:1:pos:R:3:dft_forces:R:3:MACE_forces:R:3 dft_energy=-16630.42374031458 MACE_energy=-16630.30417340497 pbc="F F F"
O       -1.53961744      -1.72035734      -0.43523960       0.10667148       0.03202109      -0.29228843       0.10106557       0.03094426      -0.28958166
H       -0.65065234      -1.91053180      -0.75826673      -0.16943772       0.11719331       0.14689346      -0.17081137       0.11595876       0.14476991
H       -1.78671627      -0.88026984      -0.84179764       0.10618883      -0.11210196       0.17779936       0.10720131      -0.11090640       0.17704940
O        1.25646366      -1.85725610      -1.23929005       0.16140240       0.28072145      -0.58141173       0.16502319       0.27199358      -0.58038972
H        1.13594998      -0.96601988      -1.61649685       0.07384589      -0.76312106       0.41896957       0.07011248      -0.76157253       0.41937207
H        1.59975399      -2.40851597      -1.93692665      -0.14914220       0.20099035       0.17304703      -0.14822416       0.20208390       0.17573767
O        0.80152120       0.67921026      -2.04502659      -0.14528585       0.52829587       0.29820824      -0.14651369       0.53470820       0.29256979
H        1.17522134       1.15626450      -1.28860598      -0.11026377      -0.31363111      -0.36050993      -0.10979282      -0.31537336      -0.35610279
H       -0.14916097       0.83630236      -1.99892740       0.21598106      -0.12427829       0.03123407       0.21675976      -0.12220176       0.03377895
O       -1.95291482       1.00554093      -1.32696419      -0.30558088       0.32126003       0.04977949      -0.30178215       0.32107996       0.05261871
H       -1.76589690       1.38241811      -0.45185881       0.10330796      -0.28498336      -0.29155710       0.10519580      -0.28684608      -0.29148217
H       -2.71688960       1.46553393      -1.66586618       0.19855716      -0.10976642       0.11094841       0.19749433      -0.10910907       0.10683077
O       -0.80152126      -0.67921029       2.04502661       0.14528544      -0.52829273      -0.29820670       0.14651416      -0.53470859      -0.29257003
H        0.14916100      -0.83630234       1.99892743      -0.21597911       0.12427747      -0.03123433      -0.21676035       0.12220179      -0.03377897
H       -1.17522136      -1.15626447       1.28860588       0.11026280       0.31363049       0.36050978       0.10979295       0.31537349       0.35610314
O       -1.25646362       1.85725613       1.23928995      -0.16140189      -0.28072366       0.58140283      -0.16502378      -0.27199333       0.58039060
H       -1.13594998       0.96601983       1.61649675      -0.07384862       0.76312086      -0.41896875      -0.07011257       0.76157311      -0.41937222
H       -1.59975399       2.40851589       1.93692679       0.14914081      -0.20098783      -0.17304163       0.14822456      -0.20208457      -0.17573868
O        1.95291485      -1.00554095       1.32696433       0.30559008      -0.32125324      -0.04976206       0.30178091      -0.32108003      -0.05262055
H        2.71688952      -1.46553390       1.66586633      -0.19856168       0.10976842      -0.11095139      -0.19749342       0.10910850      -0.10683047
H        1.76589693      -1.38241826       0.45185871      -0.10331007       0.28497755       0.29154677      -0.10519529       0.28684679       0.29148402
O        1.53961743       1.72035738       0.43523951      -0.10666886      -0.03201924       0.29228097      -0.10106626      -0.03094433       0.28958206
H        0.65065230       1.91053196       0.75826688       0.16943468      -0.11719130      -0.14689212       0.17081231      -0.11595900      -0.14477029
H        1.78671636       0.88026984       0.84179754      -0.10618806       0.11209800      -0.17779874      -0.10720146       0.11090668      -0.17704955
24
Properties=species:S:1:pos:R:3:dft_forces:R:3:MACE_forces:R:3 dft_energy=-16630.42297860881 MACE_energy=-16630.336536448347 pbc="F F F"
O        1.84281135       1.29059714       0.27527750       0.10318614      -0.33062142      -0.50207786       0.10013596      -0.33863075      -0.51576061
H        1.46418572       1.32537812      -0.61674167       0.12035474       0.03989273       0.48276266       0.12294391       0.04156890       0.48457766
H        2.06480492       0.36497372       0.42528379      -0.11954546       0.23657941       0.00381305      -0.11947413       0.23895072       0.00180227
O       -1.92568135      -1.36047602      -0.30630977      -0.02872118       0.08012134      -0.27306825      -0.02247285       0.09380266      -0.27172237
H       -2.09353411      -0.42186457      -0.45975430       0.14416984      -0.16444962       0.11097443       0.14175465      -0.16498008       0.10859019
H       -1.20365476      -1.59418827      -0.90271720      -0.06697591       0.09720390       0.20438081      -0.07021384       0.10002773       0.20930042
O       -2.00308167       1.50331419      -0.53040608      -0.21737990       0.34308176       0.17386372      -0.21203684       0.34798325       0.17254205
H       -2.71181023       2.14016956      -0.57958906       0.19368260      -0.15266430       0.03816520       0.19229501      -0.15482014       0.03840635
H       -1.51184713       1.69452113       0.28466213      -0.04283139      -0.24046152      -0.34445920      -0.04410028      -0.24403189      -0.34505051
O        1.90534032      -1.58447617       0.67468197      -0.16947777      -0.22695746       0.58316702      -0.17499149      -0.22174452       0.57559343
H        1.11120439      -1.43528068       1.22065395       0.64144900      -0.09731477      -0.55398854       0.65161940      -0.09417225      -0.55408316
H        2.51034392      -2.09822137       1.20231849      -0.20498343       0.19903832      -0.10868033      -0.20799578       0.20138061      -0.10940299
O        0.53800005      -1.78372902      -1.75570136       0.27616869      -0.34260518      -0.06301702       0.28336129      -0.33433115      -0.06124668
H        0.86442352      -2.49375698      -2.30306571      -0.06312774       0.17707919       0.16388341      -0.06405406       0.17936448       0.16169935
H        1.08359480      -1.77648821      -0.95290520      -0.31609962       0.17058854      -0.21795217      -0.31841096       0.17464777      -0.22061060
O       -0.39133828      -1.01278705       1.98959524      -0.53742005       0.24735027      -0.17494600      -0.54344585       0.25378252      -0.17597799
H       -1.02892321      -1.24206942       1.29592365       0.38671739       0.05548420       0.30876817       0.38809779       0.05624375       0.31284981
H       -0.45265087      -0.05640942       2.09031517       0.07884782      -0.24447881      -0.06606023       0.07861129      -0.24677243      -0.06556451
O       -0.37581807       1.87722486       1.71197826       0.57128112       0.29784772       0.03084938       0.56717139       0.29680805       0.03636376
H        0.46806759       1.73755139       1.24363572      -0.77980953       0.07491840       0.33994249      -0.78470043       0.06870052       0.34642294
H       -0.21457819       2.53762811       2.37998516       0.01003651      -0.23555189      -0.19355163       0.01201880      -0.23889102      -0.19639922
O        0.39086179       1.06671351      -2.08861643      -0.22996031      -0.15010163      -0.11059493      -0.22440441      -0.14105577      -0.11350431
H       -0.47711881       1.27249020      -1.71995502       0.22465957      -0.06779131       0.03893761       0.22894932      -0.06964593       0.03838998
H        0.42756662       0.10300034      -2.13981443       0.02138181       0.19756224       0.14484480       0.01934209       0.19581498       0.14278475
24
Properties=species:S:1:pos:R:3:dft_forces:R:3:MACE_forces:R:3 dft_energy=-16630.366628413445 MACE_energy=-16630.3142457733 pbc="F F F"
O       -0.14235646      -1.34947844       2.24286121       0.50717389       0.05323295       0.30500829       0.50550033       0.04948738       0.30073471
H       -0.00256648      -1.71540709       3.11159176       0.00010125       0.16155636      -0.25849925      -0.00195425       0.15745211      -0.26021213
H        0.65588869      -0.83583595       2.02175695      -0.68552460      -0.37252516       0.11036415      -0.68842968      -0.37035005       0.11509484
O        1.95623208       0.12731295       1.35410541       0.02650458       0.50167060      -0.41367248       0.03034726       0.49493624      -0.41311568
H        1.52597142       0.98348825       1.20493027       0.15757192      -0.48324469       0.18179305       0.15926770      -0.47852415       0.18364695
H        2.16129542      -0.20777644       0.47426715      -0.10509560       0.01146733       0.19173468      -0.11138065       0.01200144       0.18748503
O       -2.07291722      -0.25459040      -1.39209420      -0.07391644      -0.59815866      -0.09065988      -0.08566793      -0.59215602      -0.08670424
H       -2.88400411      -0.61921028      -1.73528725       0.24490860       0.05934487       0.17375547       0.24614805       0.06357061       0.16867504
H       -1.53139173      -1.00547702      -1.08607441      -0.39329680       0.66981042      -0.19329565      -0.38868079       0.66674065      -0.18666748
O        1.95611454      -0.72394000      -1.41545040       0.21690753       0.08505781      -0.35262045       0.20209040       0.07676436      -0.34813044
H        2.64205290      -0.84786434      -2.06702715      -0.18134928       0.06323886       0.16144189      -0.17691977       0.06334784       0.16169451
H        1.40405262       0.01038771      -1.72797686       0.03171183      -0.24266289       0.25652932       0.02756639      -0.24185863       0.25484969
O        0.11964647       1.27166634      -2.14132148      -0.30738404       0.10651073      -0.35813932      -0.29614562       0.10032918      -0.34891816
H       -0.07947491       1.87185030      -2.85588318       0.01666795      -0.13076035       0.21767234       0.01858338      -0.13032389       0.21778717
H       -0.70623117       0.80592816      -1.92916280       0.41585468       0.10389937       0.13292933       0.42010475       0.10168777       0.13536366
O        0.40271641       2.31415778       0.60998401      -0.42288032      -0.08873078      -0.14843530      -0.43315541      -0.08487557      -0.14309446
H        0.36803211       2.15613156      -0.33864886       0.05168812      -0.01285161       0.18535902       0.05196586      -0.00596288       0.17613646
H       -0.42278120       1.94160324       0.95482835       0.39504124       0.10945362      -0.07148233       0.39149914       0.10076063      -0.07049575
O       -0.36153513      -2.12986548      -0.46213907       0.35104426      -0.13922165       0.27211067       0.36234153      -0.14404657       0.26624409
H       -0.32300162      -2.01114733       0.49706268      -0.04642173       0.11176607      -0.31587275      -0.04336983       0.10924317      -0.31729064
H        0.49427922      -1.83611257      -0.79862231      -0.25299194       0.03804297       0.06491316      -0.25337560       0.04821855       0.06121954
O       -1.84757613       0.79325323       1.33465254      -0.08083688      -0.28362371      -0.04060446      -0.07686433      -0.28654068      -0.04559404
H       -1.38172518       0.05496471       1.74840545       0.00103806       0.20671028      -0.16186762       0.00128068       0.20875908      -0.16235772
H       -2.08426797       0.48443048       0.45298585       0.13895934       0.07938024       0.15272657       0.13924839       0.08133941       0.15364904
24
Properties=species:S:1:pos:R:3:dft_forces:R:3:MACE_forces:R:3 dft_energy=-16630.368406886315 MACE_energy=-16630.326951494506 pbc="F F F"
O       -1.65311722       1.72339485      -0.41854232       0.21689514       0.13561274      -0.14506499       0.21972447       0.12750265      -0.14915497
H       -0.90704863       1.98695753       0.13295638      -0.13321550      -0.15822570      -0.05536125      -0.13485434      -0.15136389      -0.05350546
H       -1.26373367       1.40636209      -1.24344271      -0.05383227      -0.04240120       0.24634034      -0.05138425      -0.04758818       0.25298927
O       -2.15608554      -0.71034279       0.87494668       0.10410449       0.44376133       0.09386528       0.09131137       0.45384882       0.09575142
H       -1.47605590      -0.65848842       1.55316424      -0.09298051      -0.06866306      -0.16497012      -0.09368935      -0.07118891      -0.16090098
H       -2.15353493       0.15964204       0.44679332       0.01495405      -0.41303037       0.09441950       0.01800804      -0.40932369       0.09293736
O       -0.67110042      -1.88409498      -1.16358679      -0.53922074       0.36203110      -0.02194812      -0.53351499       0.36047174      -0.01966720
H       -0.60104994      -1.15901139      -1.79621380       0.05121278      -0.14953110       0.22048476       0.05314580      -0.14593652       0.22104361
H       -1.31769423      -1.59515979      -0.50134307       0.39792519      -0.17958067      -0.31846324       0.39688146      -0.18056807      -0.31547785
O        1.95186432       0.68746303      -0.87069124       0.15209742      -0.08586009       0.37302195       0.14785019      -0.08490180       0.36539492
H        1.63818295       1.26838860      -0.16527134      -0.06137938      -0.16350613      -0.17484778      -0.06152264      -0.16764018      -0.17194239
H        1.98780485      -0.19459805      -0.48112613      -0.10497213       0.21954261      -0.14103083      -0.10549302       0.21895863      -0.13931728
O        1.53845020      -1.90017750       0.36255556      -0.27835557      -0.52853920      -0.43092428      -0.28197711      -0.51772637      -0.44210626
H        0.75521215      -1.97778752      -0.21480232       0.74907014       0.15697270       0.62791085       0.75009733       0.15946814       0.62569214
H        2.06291123      -2.68376400       0.22514546      -0.18484942       0.25761761      -0.02868302      -0.18728851       0.25810233      -0.02521445
O        0.36185021      -0.49333372       2.44334263       0.24275180      -0.33443483       0.25001502       0.23940722      -0.33797219       0.23443428
H        0.80678900      -1.03945591       1.77406973      -0.29663478       0.35764752       0.10321910      -0.29805505       0.36149662       0.10446529
H        0.44608498      -0.95427229       3.27446061      -0.04577829       0.07083457      -0.23959690      -0.04704319       0.07404117      -0.23870658
O       -0.17739145       0.54792321      -2.59992403       0.39924684       0.15462641      -0.19749828       0.40099023       0.15294878      -0.19820857
H        0.64096623       0.63808625      -2.08129162      -0.54989154      -0.06754756      -0.24658172      -0.55086553      -0.07114673      -0.24589273
H        0.02759643       0.82734001      -3.48806828      -0.00588983      -0.07307251       0.27758537      -0.00937163      -0.07462082       0.27648780
O        0.67631338       2.03238306       1.29820970       0.11010796       0.14817593       0.38765189       0.11011423       0.14428202       0.38193055
H        0.85860958       2.71549962       1.93890065      -0.07541437      -0.19455549      -0.14170281      -0.07554223      -0.19126781      -0.14425762
H        0.54588732       1.20923069       1.79567546       0.00294628       0.14561691      -0.34005218       0.00307151       0.14012428      -0.34677431
24
Properties=species:S:1:pos:R:3:dft_forces:R:3:MACE_forces:R:3 dft_energy=-16630.36508578035 MACE_energy=-16630.349627547843 pbc="F F F"
O        1.64702946       0.06541351      -1.67371844       0.12241188       0.45567536       0.42966459       0.12125757       0.46090542       0.43270327
H        1.99548060       0.12547652      -0.77046405      -0.18768072      -0.15373614      -0.48450093      -0.18966448      -0.15114869      -0.49009469
H        1.03060585       0.80010204      -1.75835024       0.08413848      -0.21621714       0.00855951       0.08227957      -0.22108928       0.01318024
O       -1.69256645      -0.07439645       1.85325218      -0.17145398       0.19563381       0.31923935      -0.17158026       0.19654950       0.31740354
H       -1.14705956       0.72337989       1.76692153      -0.07414738      -0.31788695      -0.15033663      -0.07354214      -0.31598497      -0.14986224
H       -2.23508466       0.04586391       2.62892605       0.16976533      -0.00613609      -0.18512911       0.17049918      -0.00666282      -0.18540192
O        0.11042911      -2.17403033      -1.46236156       0.40556877       0.04114881      -0.39688199       0.40028784       0.04062904      -0.39527658
H        0.36463314      -2.86458536      -2.06799590      -0.01682643       0.24131800       0.17995281      -0.02104238       0.24456550       0.18012186
H        0.72231680      -1.43034079      -1.61022996      -0.49336789      -0.55494566       0.19795650      -0.49520405      -0.56067321       0.19617510
O       -1.95248098      -0.30374857      -0.98458825      -0.04518287      -0.40789048       0.14178787      -0.05333755      -0.41576872       0.15232271
H       -2.03919512      -0.31861528      -0.02314300       0.13559732       0.07467004      -0.21288803       0.13797414       0.08032627      -0.21345320
H       -1.36287383      -1.03703692      -1.20841740      -0.06402531       0.30727904       0.11403214      -0.06312429       0.30466315       0.11210986
O        0.45671111      -1.96871447       1.39329792      -0.23674637      -0.10186454      -0.12166250      -0.23742752      -0.09811356      -0.12235844
H        0.33219606      -2.19250443       0.46215935       0.05850602       0.17413044       0.19278328       0.06113657       0.18119527       0.19300721
H       -0.32319325      -1.45835642       1.64141358       0.19349389       0.00733428      -0.09155930       0.19316540       0.00851728      -0.09067860
O        2.16549259       0.23505215       1.05224730      -0.33251452      -0.16789793       0.28931911      -0.32571808      -0.15926948       0.29341716
H        1.70772034      -0.58988818       1.27419234       0.21170151       0.31280290      -0.17127282       0.20809769       0.31852256      -0.17600860
H        1.54123098       0.93525151       1.26708294       0.11426431      -0.11001119      -0.12422492       0.11663944      -0.10519481      -0.11696520
O       -0.56044394       1.97400502      -1.45180868      -0.51943055      -0.12370977      -0.26472594      -0.52450548      -0.12603504      -0.26521226
H       -1.12028635       1.18019227      -1.36647271       0.50816685       0.59889970      -0.01276471       0.51378619       0.60167395      -0.01207381
H       -0.91751707       2.48807506      -2.17070328       0.10650071      -0.23123053       0.17167622       0.10746332      -0.23047508       0.17551064
O       -0.07570535       2.14409522       1.27719082      -0.04165691       0.46565361      -0.10783562      -0.05053142       0.45305854      -0.10723988
H       -0.20417875       2.17875866       0.31481261       0.08146618      -0.25426104       0.36626432       0.08768804      -0.26798812       0.36772916
H        0.09235746       3.03831557       1.56453682       0.00160190      -0.23035497      -0.11045825       0.00540269      -0.23220268      -0.10905534
24
Properties=species:S:1:pos:R:3:dft_forces:R:3:MACE_forces:R:3 dft_energy=-16630.380503518118 MACE_energy=-16630.287354015716 pbc="F F F"
O       -1.40940997      -2.21541843      -0.10307078      -0.42095770       0.04687749      -0.24870200      -0.42672017       0.05548583      -0.24662734
H       -2.08825346      -2.86184284      -0.27748589       0.17227344       0.22519981       0.02635659       0.17368952       0.22260982       0.02765452
H       -1.70442602      -1.38184556      -0.50945918       0.26097830      -0.49501319       0.29077878       0.26055785      -0.49540327       0.28749201
O       -1.23062345       1.85105363       1.12449523       0.08948458       0.39751150       0.08700331       0.08591768       0.39585061       0.09126020
H       -1.51784989       2.63835851       1.58101936       0.11050340      -0.19024087      -0.10290214       0.10311920      -0.18881806      -0.10244590
H       -0.32121035       2.01451770       0.83046408      -0.33236494      -0.24481856       0.04220296      -0.33332067      -0.24524360       0.04246434
O        1.24078039      -1.78283748      -1.14079024      -0.24423394      -0.02541567      -0.15960366      -0.24771287      -0.01997050      -0.15301867
H        0.38001541      -2.07957813      -0.81691159       0.19064299       0.17077685       0.02441633       0.18668157       0.17153037       0.02644482
H        1.05706457      -1.00113544      -1.67424307       0.05274536      -0.08578584       0.18323081       0.05366632      -0.07787202       0.18612145
O       -0.58900973      -0.77658328       2.25154014      -0.26458386      -0.00906900      -0.10911958      -0.26752741      -0.00907504      -0.11628207
H       -0.90202829      -1.37454566       1.55992671       0.16942527       0.18106605       0.06258318       0.16839945       0.18158450       0.06033944
H       -0.93113586       0.09223309       2.01177188       0.14923435      -0.13742254      -0.00022317       0.15855740      -0.13555336      -0.00834220
O        0.59796241       0.84546176      -2.26560346       0.22007920       0.32629163      -0.13770624       0.21292024       0.32601045      -0.14419536
H        0.93152288       1.32560388      -1.49203504      -0.21810104      -0.31055149      -0.17362296      -0.21635548      -0.30956637      -0.17438367
H        0.97179655       1.26923076      -3.03464882      -0.06066585      -0.09608270       0.21455333      -0.06436040      -0.09671819       0.20805238
O       -1.95761653       0.26092187      -1.13331555       0.09691759       0.39301886      -0.07031839       0.10028013       0.38983041      -0.06154346
H       -1.89065620       0.85044375      -0.37113259       0.05070524      -0.22446133      -0.10372026       0.05569329      -0.22132874      -0.10462392